# vtk DataFile Version 3.0
Purkinje
ASCII
DATASET POLYDATA
POINTS 7 float
0.00000000 0.00000000 0.00000000
2.00000000 0.00000000 0.00000000
4.00000000 0.00000000 0.00000000
6.00000000 0.00000000 0.00000000
8.00000000 0.00000000 0.00000000
10.00000000 5.00000000 0.00000000
10.00000000 -5.00000000 0.00000000
LINES 6 18
2 0 1
2 1 2
2 2 3
2 3 4
2 4 5
2 4 6
POINT_DATA 7
SCALARS vm float 1
LOOKUP_TABLE default
1.0
2.0
3.0
4.0
5.0
10.0
20.0