# vtk DataFile Version 4.1
vtk output
ASCII
DATASET POLYDATA
POINTS 5628 float
-0.122449 -0.204082 -0.943357 -0.0408163 -0.204082 -0.956685 0.0408163 -0.204082 -0.956685 
0.122449 -0.204082 -0.943357 -0.204082 -0.122449 -0.943357 -0.122449 -0.122449 -0.970012 
-0.0408163 -0.122449 -0.98334 0.0408163 -0.122449 -0.98334 0.122449 -0.122449 -0.970012 
0.204082 -0.122449 -0.943357 -0.204082 -0.0408163 -0.956685 -0.122449 -0.0408163 -0.98334 
-0.0408163 -0.0408163 -0.996668 0.0408163 -0.0408163 -0.996668 0.122449 -0.0408163 -0.98334 
0.204082 -0.0408163 -0.956685 -0.204082 0.0408163 -0.956685 -0.122449 0.0408163 -0.98334 
-0.0408163 0.0408163 -0.996668 0.0408163 0.0408163 -0.996668 0.122449 0.0408163 -0.98334 
0.204082 0.0408163 -0.956685 -0.204082 0.122449 -0.943357 -0.122449 0.122449 -0.970012 
-0.0408163 0.122449 -0.98334 0.0408163 0.122449 -0.98334 0.122449 0.122449 -0.970012 
0.204082 0.122449 -0.943357 -0.122449 0.204082 -0.943357 -0.0408163 0.204082 -0.956685 
0.0408163 0.204082 -0.956685 0.122449 0.204082 -0.943357 -0.0408163 -0.367347 -0.86339 
0.0408163 -0.367347 -0.86339 -0.204082 -0.285714 -0.876718 -0.122449 -0.213435 -0.938776 
-0.122449 -0.285714 -0.903374 -0.0408163 -0.240646 -0.938776 -0.0408163 -0.285714 -0.916701 
0.0408163 -0.240646 -0.938776 0.0408163 -0.285714 -0.916701 0.122449 -0.213435 -0.938776 
0.122449 -0.285714 -0.903374 0.204082 -0.285714 -0.876718 -0.285714 -0.204082 -0.876718 
-0.13648 -0.204082 -0.938776 -0.204082 -0.13648 -0.938776 -0.204082 -0.204082 -0.916701 
0.13648 -0.204082 -0.938776 0.204082 -0.13648 -0.938776 0.204082 -0.204082 -0.916701 
0.285714 -0.204082 -0.876718 -0.213435 -0.122449 -0.938776 -0.285714 -0.122449 -0.903374 
0.213435 -0.122449 -0.938776 0.285714 -0.122449 -0.903374 -0.367347 -0.0408163 -0.86339 
-0.240646 -0.0408163 -0.938776 -0.285714 -0.0408163 -0.916701 0.240646 -0.0408163 -0.938776 
0.285714 -0.0408163 -0.916701 0.367347 -0.0408163 -0.86339 -0.367347 0.0408163 -0.86339 
-0.240646 0.0408163 -0.938776 -0.285714 0.0408163 -0.916701 0.240646 0.0408163 -0.938776 
0.285714 0.0408163 -0.916701 0.367347 0.0408163 -0.86339 -0.213435 0.122449 -0.938776 
-0.285714 0.122449 -0.903374 -0.204082 0.13648 -0.938776 0.213435 0.122449 -0.938776 
0.204082 0.13648 -0.938776 0.285714 0.122449 -0.903374 -0.285714 0.204082 -0.876718 
-0.13648 0.204082 -0.938776 -0.204082 0.204082 -0.916701 -0.122449 0.213435 -0.938776 
-0.0408163 0.240646 -0.938776 0.0408163 0.240646 -0.938776 0.13648 0.204082 -0.938776 
0.122449 0.213435 -0.938776 0.204082 0.204082 -0.916701 0.285714 0.204082 -0.876718 
-0.204082 0.285714 -0.876718 -0.122449 0.285714 -0.903374 -0.0408163 0.285714 -0.916701 
0.0408163 0.285714 -0.916701 0.122449 0.285714 -0.903374 0.204082 0.285714 -0.876718 
-0.0408163 0.367347 -0.86339 0.0408163 0.367347 -0.86339 -0.122449 -0.44898 -0.783424 
-0.0408163 -0.375 -0.857143 -0.0408163 -0.44898 -0.796751 0.0408163 -0.375 -0.857143 
0.0408163 -0.44898 -0.796751 0.122449 -0.44898 -0.783424 -0.285714 -0.367347 -0.783424 
-0.204082 -0.315689 -0.857143 -0.204082 -0.367347 -0.823407 -0.0790816 -0.367347 -0.857143 
-0.122449 -0.356505 -0.857143 -0.122449 -0.367347 -0.850062 0.0790816 -0.367347 -0.857143 
0.122449 -0.356505 -0.857143 0.122449 -0.367347 -0.850062 0.204082 -0.315689 -0.857143 
0.204082 -0.367347 -0.823407 0.285714 -0.367347 -0.783424 -0.367347 -0.285714 -0.783424 
-0.244048 -0.285714 -0.857143 -0.285714 -0.244048 -0.857143 -0.285714 -0.285714 -0.836735 
0.244048 -0.285714 -0.857143 0.285714 -0.244048 -0.857143 0.285714 -0.285714 -0.836735 
0.367347 -0.285714 -0.783424 -0.315689 -0.204082 -0.857143 -0.367347 -0.204082 -0.823407 
0.315689 -0.204082 -0.857143 0.367347 -0.204082 -0.823407 -0.44898 -0.122449 -0.783424 
-0.356505 -0.122449 -0.857143 -0.367347 -0.0790816 -0.857143 -0.367347 -0.122449 -0.850062 
0.356505 -0.122449 -0.857143 0.367347 -0.0790816 -0.857143 0.367347 -0.122449 -0.850062 
0.44898 -0.122449 -0.783424 -0.375 -0.0408163 -0.857143 -0.44898 -0.0408163 -0.796751 
0.375 -0.0408163 -0.857143 0.44898 -0.0408163 -0.796751 -0.375 0.0408163 -0.857143 
-0.44898 0.0408163 -0.796751 -0.367347 0.0790816 -0.857143 0.375 0.0408163 -0.857143 
0.367347 0.0790816 -0.857143 0.44898 0.0408163 -0.796751 -0.44898 0.122449 -0.783424 
-0.356505 0.122449 -0.857143 -0.367347 0.122449 -0.850062 0.356505 0.122449 -0.857143 
0.367347 0.122449 -0.850062 0.44898 0.122449 -0.783424 -0.315689 0.204082 -0.857143 
-0.367347 0.204082 -0.823407 -0.285714 0.244048 -0.857143 0.315689 0.204082 -0.857143 
0.285714 0.244048 -0.857143 0.367347 0.204082 -0.823407 -0.367347 0.285714 -0.783424 
-0.244048 0.285714 -0.857143 -0.285714 0.285714 -0.836735 -0.204082 0.315689 -0.857143 
-0.122449 0.356505 -0.857143 0.122449 0.356505 -0.857143 0.244048 0.285714 -0.857143 
0.204082 0.315689 -0.857143 0.285714 0.285714 -0.836735 0.367347 0.285714 -0.783424 
-0.285714 0.367347 -0.783424 -0.204082 0.367347 -0.823407 -0.0790816 0.367347 -0.857143 
-0.122449 0.367347 -0.850062 -0.0408163 0.375 -0.857143 0.0790816 0.367347 -0.857143 
0.0408163 0.375 -0.857143 0.122449 0.367347 -0.850062 0.204082 0.367347 -0.823407 
0.285714 0.367347 -0.783424 -0.122449 0.44898 -0.783424 -0.0408163 0.44898 -0.796751 
0.0408163 0.44898 -0.796751 0.122449 0.44898 -0.783424 -0.122449 -0.457058 -0.77551 
-0.122449 -0.530612 -0.703457 -0.0408163 -0.470663 -0.77551 -0.0408163 -0.530612 -0.716785 
0.0408163 -0.470663 -0.77551 0.0408163 -0.530612 -0.716785 0.122449 -0.457058 -0.77551 
0.122449 -0.530612 -0.703457 -0.285714 -0.377041 -0.77551 -0.285714 -0.44898 -0.716785 
-0.146684 -0.44898 -0.77551 -0.204082 -0.42602 -0.77551 -0.204082 -0.44898 -0.756768 
0.146684 -0.44898 -0.77551 0.204082 -0.42602 -0.77551 0.204082 -0.44898 -0.756768 
0.285714 -0.377041 -0.77551 0.285714 -0.44898 -0.716785 -0.297832 -0.367347 -0.77551 
-0.367347 -0.297832 -0.77551 -0.367347 -0.367347 -0.730112 0.297832 -0.367347 -0.77551 
0.367347 -0.297832 -0.77551 0.367347 -0.367347 -0.730112 -0.377041 -0.285714 -0.77551 
-0.44898 -0.285714 -0.716785 0.377041 -0.285714 -0.77551 0.44898 -0.285714 -0.716785 
-0.42602 -0.204082 -0.77551 -0.44898 -0.146684 -0.77551 -0.44898 -0.204082 -0.756768 
0.42602 -0.204082 -0.77551 0.44898 -0.146684 -0.77551 0.44898 -0.204082 -0.756768 
-0.457058 -0.122449 -0.77551 -0.530612 -0.122449 -0.703457 0.457058 -0.122449 -0.77551 
0.530612 -0.122449 -0.703457 -0.470663 -0.0408163 -0.77551 -0.530612 -0.0408163 -0.716785 
0.470663 -0.0408163 -0.77551 0.530612 -0.0408163 -0.716785 -0.470663 0.0408163 -0.77551 
-0.530612 0.0408163 -0.716785 0.470663 0.0408163 -0.77551 0.530612 0.0408163 -0.716785 
-0.457058 0.122449 -0.77551 -0.530612 0.122449 -0.703457 -0.44898 0.146684 -0.77551 
0.457058 0.122449 -0.77551 0.44898 0.146684 -0.77551 0.530612 0.122449 -0.703457 
-0.42602 0.204082 -0.77551 -0.44898 0.204082 -0.756768 0.42602 0.204082 -0.77551 
0.44898 0.204082 -0.756768 -0.377041 0.285714 -0.77551 -0.44898 0.285714 -0.716785 
-0.367347 0.297832 -0.77551 0.377041 0.285714 -0.77551 0.367347 0.297832 -0.77551 
0.44898 0.285714 -0.716785 -0.297832 0.367347 -0.77551 -0.367347 0.367347 -0.730112 
-0.285714 0.377041 -0.77551 -0.204082 0.42602 -0.77551 0.204082 0.42602 -0.77551 
0.297832 0.367347 -0.77551 0.285714 0.377041 -0.77551 0.367347 0.367347 -0.730112 
-0.285714 0.44898 -0.716785 -0.146684 0.44898 -0.77551 -0.204082 0.44898 -0.756768 
-0.122449 0.457058 -0.77551 -0.0408163 0.470663 -0.77551 0.0408163 0.470663 -0.77551 
0.146684 0.44898 -0.77551 0.122449 0.457058 -0.77551 0.204082 0.44898 -0.756768 
0.285714 0.44898 -0.716785 -0.122449 0.530612 -0.703457 -0.0408163 0.530612 -0.716785 
0.0408163 0.530612 -0.716785 0.122449 0.530612 -0.703457 -0.122449 -0.538994 -0.693878 
-0.0408163 -0.550656 -0.693878 -0.0408163 -0.612245 -0.62349 0.0408163 -0.550656 -0.693878 
0.0408163 -0.612245 -0.62349 0.122449 -0.538994 -0.693878 -0.285714 -0.472364 -0.693878 
-0.285714 -0.530612 -0.636818 -0.151786 -0.530612 -0.693878 -0.204082 -0.51318 -0.693878 
-0.204082 -0.530612 -0.676801 0.151786 -0.530612 -0.693878 0.204082 -0.51318 -0.693878 
0.204082 -0.530612 -0.676801 0.285714 -0.472364 -0.693878 0.285714 -0.530612 -0.636818 
-0.320791 -0.44898 -0.693878 -0.367347 -0.411735 -0.693878 -0.367347 -0.44898 -0.663474 
0.320791 -0.44898 -0.693878 0.367347 -0.411735 -0.693878 0.367347 -0.44898 -0.663474 
-0.411735 -0.367347 -0.693878 -0.44898 -0.320791 -0.693878 -0.44898 -0.367347 -0.663474 
0.411735 -0.367347 -0.693878 0.44898 -0.320791 -0.693878 0.44898 -0.367347 -0.663474 
-0.472364 -0.285714 -0.693878 -0.530612 -0.285714 -0.636818 0.472364 -0.285714 -0.693878 
0.530612 -0.285714 -0.636818 -0.51318 -0.204082 -0.693878 -0.530612 -0.151786 -0.693878 
-0.530612 -0.204082 -0.676801 0.51318 -0.204082 -0.693878 0.530612 -0.151786 -0.693878 
0.530612 -0.204082 -0.676801 -0.538994 -0.122449 -0.693878 0.538994 -0.122449 -0.693878 
-0.550656 -0.0408163 -0.693878 -0.612245 -0.0408163 -0.62349 0.550656 -0.0408163 -0.693878 
0.612245 -0.0408163 -0.62349 -0.550656 0.0408163 -0.693878 -0.612245 0.0408163 -0.62349 
0.550656 0.0408163 -0.693878 0.612245 0.0408163 -0.62349 -0.538994 0.122449 -0.693878 
-0.530612 0.151786 -0.693878 0.538994 0.122449 -0.693878 0.530612 0.151786 -0.693878 
-0.51318 0.204082 -0.693878 -0.530612 0.204082 -0.676801 0.51318 0.204082 -0.693878 
0.530612 0.204082 -0.676801 -0.472364 0.285714 -0.693878 -0.530612 0.285714 -0.636818 
-0.44898 0.320791 -0.693878 0.472364 0.285714 -0.693878 0.44898 0.320791 -0.693878 
0.530612 0.285714 -0.636818 -0.411735 0.367347 -0.693878 -0.44898 0.367347 -0.663474 
-0.367347 0.411735 -0.693878 0.411735 0.367347 -0.693878 0.367347 0.411735 -0.693878 
0.44898 0.367347 -0.663474 -0.320791 0.44898 -0.693878 -0.367347 0.44898 -0.663474 
-0.285714 0.472364 -0.693878 -0.204082 0.51318 -0.693878 0.204082 0.51318 -0.693878 
0.320791 0.44898 -0.693878 0.285714 0.472364 -0.693878 0.367347 0.44898 -0.663474 
-0.285714 0.530612 -0.636818 -0.151786 0.530612 -0.693878 -0.204082 0.530612 -0.676801 
[...]
POINT_DATA 5628
SCALARS scalars float
LOOKUP_TABLE default
1 1 1 1 1 1 1 1 1 
1 1 1 1 1 1 1 1 1 
1 1 1 1 1 1 1 1 1 
1 1 1 1 1 1 1 1 1 
1 1 1 1 1 1 1 1 1 
1 1 1 1 1 1 1 1 1 
1 1 1 1 1 1 1 1 1 
1 1 1 1 1 1 1 1 1 
1 1 1 1 1 1 1 1 1 
1 1 1 1 1 1 1 1 1 
1 1 1 1 1 1 1 1 1 
1 1 1 1 1 1 1 1 1 
1 1 1 1 1 1 1 1 1 
1 1 1 1 1 1 1 1 1 
1 1 1 1 1 1 1 1 1 
1 1 1 1 1 1 1 1 1 
1 1 1 1 1 1 1 1 1 
1 1 1 1 1 1 1 1 1 
1 1 1 1 1 1 1 1 1 
1 1 1 1 1 1 1 1 1 
1 1 1 1 1 1 1 1 1 
1 1 1 1 1 1 1 1 1 
1 1 1 1 1 1 1 1 1 
1 1 1 1 1 1 1 1 1 
1 1 1 1 1 1 1 1 1 
1 1 1 1 1 1 1 1 1 
1 1 1 1 1 1 1 1 1 
1 1 1 1 1 1 1 1 1 
1 1 1 1 1 1 1 1 1 
1 1 1 1 1 1 1 1 1 
1 1 1 1 1 1 1 1 1 
1 1 1 1 1 1 1 1 1 
1 1 1 1 1 1 1 1 1 
1 1 1 1 1 1 1 1 1 
1 1 1 1 1 1 1 1 1 
1 1 1 1 1 1 1 1 1 
1 1 1 1 1 1 1 1 1 
1 1 1 1 1 1 1 1 1 
1 1 1 1 1 1 1 1 1 
1 1 1 1 1 1 1 1 1 
1 1 1 1 1 1 1 1 1 
1 1 1 1 1 1 1 1 1 
1 1 1 1 1 1 1 1 1 
1 1 1 1 1 1 1 1 1 
1 1 1 1 1 1 1 1 1 
1 1 1 1 1 1 1 1 1 
1 1 1 1 1 1 1 1 1 
1 1 1 1 1 1 1 1 1 
1 1 1 1 1 1 1 1 1 
1 1 1 1 1 1 1 1 1 
1 1 1 1 1 1 1 1 1 
1 1 1 1 1 1 1 1 1 
1 1 1 1 1 1 1 1 1 
1 1 1 1 1 1 1 1 1 
1 1 1 1 1 1 1 1 1 
1 1 1 1 1 1 1 1 1 
1 1 1 1 1 1 1 1 1 
1 1 1 1 1 1 1 1 1 
1 1 1 1 1 1 1 1 1 
1 1 1 1 1 1 1 1 1 
1 1 1 1 1 1 1 1 1 
1 1 1 1 1 1 1 1 1 
1 1 1 1 1 1 1 1 1 
1 1 1 1 1 1 1 1 1 
1 1 1 1 1 1 1 1 1 
1 1 1 1 1 1 1 1 1 
1 1 1 1 1 1 1 1 1 
1 1 1 1 1 1 1 1 1 
1 1 1 1 1 1 1 1 1 
1 1 1 1 1 1 1 1 1 
1 1 1 1 1 1 1 1 1 
1 1 1 1 1 1 1 1 1 
1 1 1 1 1 1 1 1 1 
1 1 1 1 1 1 1 1 1 
1 1 1 1 1 1 1 1 1 
1 1 1 1 1 1 1 1 1 
1 1 1 1 1 1 1 1 1 
1 1 1 1 1 1 1 1 1 
1 1 1 1 1 1 1 1 1 
1 1 1 1 1 1 1 1 1 
1 1 1 1 1 1 1 1 1 
1 1 1 1 1 1 1 1 1 
1 1 1 1 1 1 1 1 1 
1 1 1 1 1 1 1 1 1 
1 1 1 1 1 1 1 1 1 
1 1 1 1 1 1 1 1 1 
1 1 1 1 1 1 1 1 1 
1 1 1 1 1 1 1 1 1 
1 1 1 1 1 1 1 1 1 
1 1 1 1 1 1 1 1 1 
1 1 1 1 1 1 1 1 1 
1 1 1 1 1 1 1 1 1 
1 1 1 1 1 1 1 1 1 
1 1 1 1 1 1 1 1 1 
1 1 1 1 1 1 1 1 1 
1 1 1 1 1 1 1 1 1 
1 1 1 1 1 1 1 1 1 
1 1 1 1 1 1 1 1 1 
1 1 1 1 1 1 1 1 1 
1 1 1 1 1 1 1 1 1 
1 1 1 1 1 1 1 1 1 
1 1 1 1 1 1 1 1 1 
1 1 1 1 1 1 1 1 1 
1 1 1 1 1 1 1 1 1 
1 1 1 1 1 1 1 1 1 
1 1 1 1 1 1 1 1 1 
1 1 1 1 1 1 1 1 1 
1 1 1 1 1 1 1 1 1 
1 1 1 1 1 1 1 1 1 
1 1 1 1 1 1 1 1 1 
1 1 1 1 1 1 1 1 1 
1 1 1 1 1 1 1 1 1 
1 1 1 1 1 1 1 1 1 
1 1 1 1 1 1 1 1 1 
1 1 1 1 1 1 1 1 1 
1 1 1 1 1 1 1 1 1 
1 1 1 1 1 1 1 1 1 
1 1 1 1 1 1 1 1 1 
1 1 1 1 1 1 1 1 1 
1 1 1 1 1 1 1 1 1 
1 1 1 1 1 1 1 1 1 
1 1 1 1 1 1 1 1 1 
1 1 1 1 1 1 1 1 1 
1 1 1 1 1 1 1 1 1 
1 1 1 1 1 1 1 1 1 
1 1 1 1 1 1 1 1 1 
1 1 1 1 1 1 1 1 1 
1 1 1 1 1 1 1 1 1 
1 1 1 1 1 1 1 1 1 
1 1 1 1 1 1 1 1 1 
1 1 1 1 1 1 1 1 1 
1 1 1 1 1 1 1 1 1 
1 1 1 1 1 1 1 1 1 
1 1 1 1 1 1 1 1 1 
1 1 1 1 1 1 1 1 1 
1 1 1 1 1 1 1 1 1 
1 1 1 1 1 1 1 1 1 
1 1 1 1 1 1 1 1 1 
1 1 1 1 1 1 1 1 1 
1 1 1 1 1 1 1 1 1 
1 1 1 1 1 1 1 1 1 
1 1 1 1 1 1 1 1 1 
1 1 1 1 1 1 1 1 1 
1 1 1 1 1 1 1 1 1 
1 1 1 1 1 1 1 1 1 
1 1 1 1 1 1 1 1 1 
1 1 1 1 1 1 1 1 1 
1 1 1 1 1 1 1 1 1 
1 1 1 1 1 1 1 1 1 
1 1 1 1 1 1 1 1 1 
1 1 1 1 1 1 1 1 1 
1 1 1 1 1 1 1 1 1 
1 1 1 1 1 1 1 1 1 
1 1 1 1 1 1 1 1 1 
1 1 1 1 1 1 1 1 1 
1 1 1 1 1 1 1 1 1 
1 1 1 1 1 1 1 1 1 
1 1 1 1 1 1 1 1 1 
1 1 1 1 1 1 1 1 1 
1 1 1 1 1 1 1 1 1 
1 1 1 1 1 1 1 1 1 
1 1 1 1 1 1 1 1 1 
1 1 1 1 1 1 1 1 1 
1 1 1 1 1 1 1 1 1 
1 1 1 1 1 1 1 1 1 
1 1 1 1 1 1 1 1 1 
1 1 1 1 1 1 1 1 1 
1 1 1 1 1 1 1 1 1 
1 1 1 1 1 1 1 1 1 
1 1 1 1 1 1 1 1 1 
1 1 1 1 1 1 1 1 1 
1 1 1 1 1 1 1 1 1 
1 1 1 1 1 1 1 1 1 
1 1 1 1 1 1 1 1 1 
1 1 1 1 1 1 1 1 1 
1 1 1 1 1 1 1 1 1 
1 1 1 1 1 1 1 1 1 
1 1 1 1 1 1 1 1 1 
1 1 1 1 1 1 1 1 1 
1 1 1 1 1 1 1 1 1 
1 1 1 1 1 1 1 1 1 
1 1 1 1 1 1 1 1 1 
1 1 1 1 1 1 1 1 1 
1 1 1 1 1 1 1 1 1 
1 1 1 1 1 1 1 1 1 
1 1 1 1 1 1 1 1 1 
1 1 1 1 1 1 1 1 1 
1 1 1 1 1 1 1 1 1 
1 1 1 1 1 1 1 1 1 
1 1 1 1 1 1 1 1 1 
1 1 1 1 1 1 1 1 1 
1 1 1 1 1 1 1 1 1 
1 1 1 1 1 1 1 1 1 
1 1 1 1 1 1 1 1 1 
1 1 1 1 1 1 1 1 1 
1 1 1 1 1 1 1 1 1 
1 1 1 1 1 1 1 1 1 
1 1 1 1 1 1 1 1 1 
1 1 1 1 1 1 1 1 1 
1 1 1 1 1 1 1 1 1 
1 1 1 1 1 1 1 1 1 
1 1 1 1 1 1 1 1 1 
1 1 1 1 1 1 1 1 1 
1 1 1 1 1 1 1 1 1 
1 1 1 1 1 1 1 1 1 
1 1 1 1 1 1 1 1 1 
1 1 1 1 1 1 1 1 1 
1 1 1 1 1 1 1 1 1 
1 1 1 1 1 1 1 1 1 
1 1 1 1 1 1 1 1 1 
1 1 1 1 1 1 1 1 1 
1 1 1 1 1 1 1 1 1 
1 1 1 1 1 1 1 1 1 
1 1 1 1 1 1 1 1 1 
1 1 1 1 1 1 1 1 1 
1 1 1 1 1 1 1 1 1 
1 1 1 1 1 1 1 1 1 
1 1 1 1 1 1 1 1 1 
1 1 1 1 1 1 1 1 1 
1 1 1 1 1 1 1 1 1 
1 1 1 1 1 1 1 1 1 
1 1 1 1 1 1 1 1 1 
1 1 1 1 1 1 1 1 1 
1 1 1 1 1 1 1 1 1 
1 1 1 1 1 1 1 1 1 
1 1 1 1 1 1 1 1 1 
1 1 1 1 1 1 1 1 1 
1 1 1 1 1 1 1 1 1 
1 1 1 1 1 1 1 1 1 
1 1 1 1 1 1 1 1 1 
1 1 1 1 1 1 1 1 1 
1 1 1 1 1 1 1 1 1 
1 1 1 1 1 1 1 1 1 
1 1 1 1 1 1 1 1 1 
1 1 1 1 1 1 1 1 1 
1 1 1 1 1 1 1 1 1 
1 1 1 1 1 1 1 1 1 
1 1 1 1 1 1 1 1 1 
1 1 1 1 1 1 1 1 1 
1 1 1 1 1 1 1 1 1 
1 1 1 1 1 1 1 1 1 
1 1 1 1 1 1 1 1 1 
1 1 1 1 1 1 1 1 1 
1 1 1 1 1 1 1 1 1 
1 1 1 1 1 1 1 1 1 
1 1 1 1 1 1 1 1 1 
1 1 1 1 1 1 1 1 1 
1 1 1 1 1 1 1 1 1 
1 1 1 1 1 1 1 1 1 
1 1 1 1 1 1 1 1 1 
1 1 1 1 1 1 1 1 1 
1 1 1 1 1 1 1 1 1 
1 1 1 1 1 1 1 1 1 
1 1 1 1 1 1 1 1 1 
1 1 1 1 1 1 1 1 1 
1 1 1 1 1 1 1 1 1 
1 1 1 1 1 1 1 1 1 
1 1 1 1 1 1 1 1 1 
1 1 1 1 1 1 1 1 1 
1 1 1 1 1 1 1 1 1 
1 1 1 1 1 1 1 1 1 
1 1 1 1 1 1 1 1 1 
1 1 1 1 1 1 1 1 1 
1 1 1 1 1 1 1 1 1 
1 1 1 1 1 1 1 1 1 
1 1 1 1 1 1 1 1 1 
1 1 1 1 1 1 1 1 1 
1 1 1 1 1 1 1 1 1 
1 1 1 1 1 1 1 1 1 
1 1 1 1 1 1 1 1 1 
1 1 1 1 1 1 1 1 1 
1 1 1 1 1 1 1 1 1 
1 1 1 1 1 1 1 1 1 
1 1 1 1 1 1 1 1 1 
1 1 1 1 1 1 1 1 1 
1 1 1 1 1 1 1 1 1 
1 1 1 1 1 1 1 1 1 
1 1 1 1 1 1 1 1 1 
1 1 1 1 1 1 1 1 1 
1 1 1 1 1 1 1 1 1 
1 1 1 1 1 1 1 1 1 
1 1 1 1 1 1 1 1 1 
1 1 1 1 1 1 1 1 1 
1 1 1 1 1 1 1 1 1 
1 1 1 1 1 1 1 1 1 
1 1 1 1 1 1 1 1 1 
1 1 1 1 1 1 1 1 1 
1 1 1 1 1 1 1 1 1 
1 1 1 1 1 1 1 1 1 
1 1 1 1 1 1 1 1 1 
1 1 1 1 1 1 1 1 1 
1 1 1 1 1 1 1 1 1 
1 1 1 1 1 1 1 1 1 
1 1 1 1 1 1 1 1 1 
1 1 1 1 1 1 1 1 1 
1 1 1 1 1 1 1 1 1 
1 1 1 1 1 1 1 1 1 
1 1 1 1 1 1 1 1 1 
1 1 1 1 1 1 1 1 1 
1 1 1 1 1 1 1 1 1 
1 1 1 1 1 1 1 1 1 
1 1 1 1 1 1 1 1 1 
1 1 1 1 1 1 1 1 1 
1 1 1 1 1 1 1 1 1 
1 1 1 1 1 1 1 1 1 
1 1 1 1 1 1 1 1 1 
1 1 1 1 1 1 1 1 1 
1 1 1 1 1 1 1 1 1 
1 1 1 1 1 1 1 1 1 
1 1 1 1 1 1 1 1 1 
1 1 1 1 1 1 1 1 1 
1 1 1 1 1 1 1 1 1 
1 1 1 1 1 1 1 1 1 
1 1 1 1 1 1 1 1 1 
1 1 1 1 1 1 1 1 1 
1 1 1 1 1 1 1 1 1 
1 1 1 1 1 1 1 1 1 
1 1 1 1 1 1 1 1 1 
1 1 1 1 1 1 1 1 1 
1 1 1 1 1 1 1 1 1 
1 1 1 1 1 1 1 1 1 
1 1 1 1 1 1 1 1 1 
1 1 1 1 1 1 1 1 1 
1 1 1 1 1 1 1 1 1 
1 1 1 1 1 1 1 1 1 
1 1 1 1 1 1 1 1 1 
1 1 1 1 1 1 1 1 1 
1 1 1 1 1 1 1 1 1 
1 1 1 1 1 1 1 1 1 
1 1 1 1 1 1 1 1 1 
1 1 1 1 1 1 1 1 1 
1 1 1 1 1 1 1 1 1 
1 1 1 1 1 1 1 1 1 
1 1 1 1 1 1 1 1 1 
1 1 1 1 1 1 1 1 1 
1 1 1 1 1 1 1 1 1 
1 1 1 1 1 1 1 1 1 
1 1 1 1 1 1 1 1 1 
1 1 1 1 1 1 1 1 1 
1 1 1 1 1 1 1 1 1 
1 1 1 1 1 1 1 1 1 
1 1 1 1 1 1 1 1 1 
1 1 1 1 1 1 1 1 1 
1 1 1 1 1 1 1 1 1 
1 1 1 1 1 1 1 1 1 
1 1 1 1 1 1 1 1 1 
1 1 1 1 1 1 1 1 1 
1 1 1 1 1 1 1 1 1 
1 1 1 1 1 1 1 1 1 
1 1 1 1 1 1 1 1 1 
1 1 1 1 1 1 1 1 1 
1 1 1 1 1 1 1 1 1 
1 1 1 1 1 1 1 1 1 
1 1 1 1 1 1 1 1 1 
1 1 1 1 1 1 1 1 1 
1 1 1 1 1 1 1 1 1 
1 1 1 1 1 1 1 1 1 
1 1 1 1 1 1 1 1 1 
1 1 1 1 1 1 1 1 1 
1 1 1 1 1 1 1 1 1 
1 1 1 1 1 1 1 1 1 
1 1 1 1 1 1 1 1 1 
1 1 1 1 1 1 1 1 1 
1 1 1 1 1 1 1 1 1 
1 1 1 1 1 1 1 1 1 
1 1 1 1 1 1 1 1 1 
1 1 1 1 1 1 1 1 1 
1 1 1 1 1 1 1 1 1 
1 1 1 1 1 1 1 1 1 
1 1 1 1 1 1 1 1 1 
1 1 1 1 1 1 1 1 1 
1 1 1 1 1 1 1 1 1 
1 1 1 1 1 1 1 1 1 
1 1 1 1 1 1 1 1 1 
1 1 1 1 1 1 1 1 1 
1 1 1 1 1 1 1 1 1 
1 1 1 1 1 1 1 1 1 
1 1 1 1 1 1 1 1 1 
1 1 1 1 1 1 1 1 1 
1 1 1 1 1 1 1 1 1 
1 1 1 1 1 1 1 1 1 
1 1 1 1 1 1 1 1 1 
1 1 1 1 1 1 1 1 1 
1 1 1 1 1 1 1 1 1 
1 1 1 1 1 1 1 1 1 
1 1 1 1 1 1 1 1 1 
1 1 1 1 1 1 1 1 1 
1 1 1 1 1 1 1 1 1 
1 1 1 1 1 1 1 1 1 
1 1 1 1 1 1 1 1 1 
1 1 1 1 1 1 1 1 1 
1 1 1 1 1 1 1 1 1 
1 1 1 1 1 1 1 1 1 
1 1 1 1 1 1 1 1 1 
1 1 1 1 1 1 1 1 1 
1 1 1 1 1 1 1 1 1 
1 1 1 1 1 1 1 1 1 
1 1 1 1 1 1 1 1 1 
1 1 1 1 1 1 1 1 1 
1 1 1 1 1 1 1 1 1 
1 1 1 1 1 1 1 1 1 
1 1 1 1 1 1 1 1 1 
1 1 1 1 1 1 1 1 1 
1 1 1 1 1 1 1 1 1 
1 1 1 1 1 1 1 1 1 
1 1 1 1 1 1 1 1 1 
1 1 1 1 1 1 1 1 1 
1 1 1 1 1 1 1 1 1 
1 1 1 1 1 1 1 1 1 
1 1 1 1 1 1 1 1 1 
1 1 1 1 1 1 1 1 1 
1 1 1 1 1 1 1 1 1 
1 1 1 1 1 1 1 1 1 
1 1 1 1 1 1 1 1 1 
1 1 1 1 1 1 1 1 1 
1 1 1 1 1 1 1 1 1 
1 1 1 1 1 1 1 1 1 
1 1 1 1 1 1 1 1 1 
1 1 1 1 1 1 1 1 1 
1 1 1 1 1 1 1 1 1 
1 1 1 1 1 1 1 1 1 
1 1 1 1 1 1 1 1 1 
1 1 1 1 1 1 1 1 1 
1 1 1 1 1 1 1 1 1 
1 1 1 1 1 1 1 1 1 
1 1 1 1 1 1 1 1 1 
1 1 1 1 1 1 1 1 1 
1 1 1 1 1 1 1 1 1 
1 1 1 1 1 1 1 1 1 
1 1 1 1 1 1 1 1 1 
1 1 1 1 1 1 1 1 1 
1 1 1 1 1 1 1 1 1 
1 1 1 1 1 1 1 1 1 
1 1 1 1 1 1 1 1 1 
1 1 1 1 1 1 1 1 1 
1 1 1 1 1 1 1 1 1 
1 1 1 1 1 1 1 1 1 
1 1 1 1 1 1 1 1 1 
1 1 1 1 1 1 1 1 1 
1 1 1 1 1 1 1 1 1 
1 1 1 1 1 1 1 1 1 
1 1 1 1 1 1 1 1 1 
1 1 1 1 1 1 1 1 1 
1 1 1 1 1 1 1 1 1 
1 1 1 1 1 1 1 1 1 
1 1 1 1 1 1 1 1 1 
1 1 1 1 1 1 1 1 1 
1 1 1 1 1 1 1 1 1 
1 1 1 1 1 1 1 1 1 
1 1 1 1 1 1 1 1 1 
1 1 1 1 1 1 1 1 1 
1 1 1 1 1 1 1 1 1 
1 1 1 1 1 1 1 1 1 
1 1 1 1 1 1 1 1 1 
1 1 1 1 1 1 1 1 1 
1 1 1 1 1 1 1 1 1 
1 1 1 1 1 1 1 1 1 
1 1 1 1 1 1 1 1 1 
1 1 1 1 1 1 1 1 1 
1 1 1 1 1 1 1 1 1 
1 1 1 1 1 1 1 1 1 
1 1 1 1 1 1 1 1 1 
1 1 1 1 1 1 1 1 1 
1 1 1 1 1 1 1 1 1 
1 1 1 1 1 1 1 1 1 
1 1 1 1 1 1 1 1 1 
1 1 1 1 1 1 1 1 1 
1 1 1 1 1 1 1 1 1 
1 1 1 1 1 1 1 1 1 
1 1 1 1 1 1 1 1 1 
1 1 1 1 1 1 1 1 1 
1 1 1 1 1 1 1 1 1 
1 1 1 1 1 1 1 1 1 
1 1 1 1 1 1 1 1 1 
1 1 1 1 1 1 1 1 1 
1 1 1 1 1 1 1 1 1 
1 1 1 1 1 1 1 1 1 
1 1 1 1 1 1 1 1 1 
1 1 1 1 1 1 1 1 1 
1 1 1 1 1 1 1 1 1 
1 1 1 1 1 1 1 1 1 
1 1 1 1 1 1 1 1 1 
1 1 1 1 1 1 1 1 1 
1 1 1 1 1 1 1 1 1 
1 1 1 1 1 1 1 1 1 
1 1 1 1 1 1 1 1 1 
1 1 1 1 1 1 1 1 1 
1 1 1 1 1 1 1 1 1 
1 1 1 1 1 1 1 1 1 
1 1 1 1 1 1 1 1 1 
1 1 1 1 1 1 1 1 1 
1 1 1 1 1 1 1 1 1 
1 1 1 1 1 1 1 1 1 
1 1 1 1 1 1 1 1 1 
1 1 1 1 1 1 1 1 1 
1 1 1 1 1 1 1 1 1 
1 1 1 1 1 1 1 1 1 
1 1 1 1 1 1 1 1 1 
1 1 1 1 1 1 1 1 1 
1 1 1 1 1 1 1 1 1 
1 1 1 1 1 1 1 1 1 
1 1 1 1 1 1 1 1 1 
1 1 1 1 1 1 1 1 1 
1 1 1 1 1 1 1 1 1 
1 1 1 1 1 1 1 1 1 
1 1 1 1 1 1 1 1 1 
1 1 1 1 1 1 1 1 1 
1 1 1 1 1 1 1 1 1 
1 1 1 1 1 1 1 1 1 
1 1 1 1 1 1 1 1 1 
1 1 1 1 1 1 1 1 1 
1 1 1 1 1 1 1 1 1 
1 1 1 1 1 1 1 1 1 
1 1 1 1 1 1 1 1 1 
1 1 1 1 1 1 1 1 1 
1 1 1 1 1 1 1 1 1 
1 1 1 1 1 1 1 1 1 
1 1 1 1 1 1 1 1 1 
1 1 1 1 1 1 1 1 1 
1 1 1 1 1 1 1 1 1 
1 1 1 1 1 1 1 1 1 
1 1 1 1 1 1 1 1 1 
1 1 1 1 1 1 1 1 1 
1 1 1 1 1 1 1 1 1 
1 1 1 1 1 1 1 1 1 
1 1 1 1 1 1 1 1 1 
1 1 1 1 1 1 1 1 1 
1 1 1 1 1 1 1 1 1 
1 1 1 1 1 1 1 1 1 
1 1 1 1 1 1 1 1 1 
1 1 1 1 1 1 1 1 1 
1 1 1 1 1 1 1 1 1 
1 1 1 1 1 1 1 1 1 
1 1 1 1 1 1 1 1 1 
1 1 1 1 1 1 1 1 1 
1 1 1 1 1 1 1 1 1 
1 1 1 1 1 1 1 1 1 
1 1 1 1 1 1 1 1 1 
1 1 1 1 1 1 1 1 1 
1 1 1 1 1 1 1 1 1 
1 1 1 1 1 1 1 1 1 
1 1 1 1 1 1 1 1 1 
1 1 1 1 1 1 1 1 1 
1 1 1 1 1 1 1 1 1 
1 1 1 1 1 1 1 1 1 
1 1 1 1 1 1 1 1 1 
1 1 1 1 1 1 1 1 1 
1 1 1 1 1 1 1 1 1 
1 1 1 1 1 1 1 1 1 
1 1 1 1 1 1 1 1 1 
1 1 1 1 1 1 1 1 1 
1 1 1 1 1 1 1 1 1 
1 1 1 1 1 1 1 1 1 
1 1 1 1 1 1 1 1 1 
1 1 1 1 1 1 1 1 1 
1 1 1 1 1 1 1 1 1 
1 1 1 1 1 1 1 1 1 
1 1 1 1 1 1 1 1 1 
1 1 1 1 1 1 1 1 1 
1 1 1 1 1 1 1 1 1 
1 1 1 1 1 1 1 1 1 
1 1 1 1 1 1 1 1 1 
1 1 1 1 1 1 1 1 1 
1 1 1 1 1 1 1 1 1 
1 1 1 1 1 1 1 1 1 
1 1 1 1 1 1 1 1 1 
1 1 1 1 1 1 1 1 1 
1 1 1 1 1 1 1 1 1 
1 1 1 1 1 1 1 1 1 
1 1 1 1 1 1 1 1 1 
1 1 1 1 1 1 1 1 1 
1 1 1 1 1 1 1 1 1 
1 1 1 1 1 1 1 1 1 
1 1 1 1 1 1 1 1 1 
1 1 1 1 1 1 1 1 1 
1 1 1 1 1 1 1 1 1 
1 1 1 1 1 1 1 1 1 
1 1 1 1 1 1 1 1 1 
1 1 1 1 1 1 1 1 1 
1 1 1 1 1 1 1 1 1 
1 1 1 1 1 1 1 1 1 
1 1 1 1 1 1 1 1 1 
1 1 1 1 1 1 1 1 1 
1 1 1 1 1 1 1 1 1 
1 1 1 1 1 1 1 1 1 
1 1 1 1 1 1 1 1 1 
1 1 1 1 1 1 1 1 1 
1 1 1 1 1 1 1 1 1 
1 1 1 1 1 1 1 1 1 
1 1 1 1 1 1 1 1 1 
1 1 1 1 1 1 1 1 1 
1 1 1 1 1 1 1 1 1 
1 1 1 1 1 1 1 1 1 
1 1 1 1 1 1 1 1 1 
1 1 1 1 1 1 1 1 1 
1 1 1 1 1 1 1 1 1 
1 1 1 1 1 1 1 1 1 
1 1 1 1 1 1 1 1 1 
1 1 1 1 1 1 1 1 1 
1 1 1 1 1 1 1 1 1 
1 1 1 1 1 1 1 1 1 
1 1 1 1 1 1 1 1 1 
1 1 1 1 1 1 1 1 1 
1 1 1 1 1 1 1 1 1 
1 1 1 1 1 1 1 1 1 
1 1 1 1 1 1 1 1 1 
1 1 1 1 1 1 1 1 1 
1 1 1 1 1 1 1 1 1 
1 1 1 1 1 1 1 1 1 
1 1 1 1 1 1 1 1 1 
1 1 1 1 1 1 1 1 1 
1 1 1 1 1 1 1 1 1 
1 1 1 1 1 1 1 1 1 
1 1 1 1 1 1 1 1 1 
1 1 1 1 1 1 1 1 1 
1 1 1 1 1 1 1 1 1 
1 1 1 1 1 1 1 1 1 
1 1 1 1 1 1 1 1 1 
1 1 1 1 1 1 1 1 1 
1 1 1 1 1 1 1 1 1 
1 1 1 1 1 1 1 1 1 
1 1 1 1 1 1 1 1 1 
1 1 1 1 1 1 1 1 1 
1 1 1 1 1 1 1 1 1 
1 1 1 1 1 1 1 1 1 
1 1 1 
NORMALS Normals float
0.221125 0.368542 0.902929 0.0753645 0.376822 0.923215 -0.0753645 0.376822 0.923215 
-0.221125 0.368542 0.902929 0.368542 0.221125 0.902929 0.231412 0.231412 0.944932 
0.0790415 0.237125 0.968258 -0.0790415 0.237125 0.968258 -0.231412 0.231412 0.944932 
-0.368542 0.221125 0.902929 0.376822 0.0753645 0.923215 0.237125 0.0790415 0.968258 
0.081094 0.081094 0.993402 -0.081094 0.081094 0.993402 -0.237125 0.0790415 0.968258 
-0.376822 0.0753645 0.923215 0.376822 -0.0753645 0.923215 0.237125 -0.0790415 0.968258 
0.081094 -0.081094 0.993402 -0.081094 -0.081094 0.993402 -0.237125 -0.0790415 0.968258 
-0.376822 -0.0753645 0.923215 0.368542 -0.221125 0.902929 0.231412 -0.231412 0.944932 
0.0790415 -0.237125 0.968258 -0.0790415 -0.237125 0.968258 -0.231412 -0.231412 0.944932 
-0.368542 -0.221125 0.902929 0.221125 -0.368542 0.902929 0.0753645 -0.376822 0.923215 
-0.0753645 -0.376822 0.923215 -0.221125 -0.368542 0.902929 0.0656444 0.590799 0.804144 
-0.0656444 0.590799 0.804144 0.33403 0.467642 0.818373 0.219731 0.383003 0.897233 
0.207981 0.48529 0.849257 0.0733584 0.432509 0.89864 0.0706996 0.494897 0.866071 
-0.0733584 0.432509 0.89864 -0.0706996 0.494897 0.866071 -0.219731 0.383003 0.897233 
-0.207981 0.48529 0.849257 -0.33403 0.467642 0.818373 0.467642 0.33403 0.818373 
0.245016 0.366378 0.897627 0.366378 0.245016 0.897627 0.353498 0.353498 0.866071 
-0.245016 0.366378 0.897627 -0.366378 0.245016 0.897627 -0.353498 0.353498 0.866071 
-0.467642 0.33403 0.818373 0.383003 0.219731 0.897233 0.48529 0.207981 0.849257 
-0.383003 0.219731 0.897233 -0.48529 0.207981 0.849257 0.590799 0.0656444 0.804144 
0.432509 0.0733584 0.89864 0.494897 0.0706996 0.866071 -0.432509 0.0733584 0.89864 
-0.494897 0.0706996 0.866071 -0.590799 0.0656444 0.804144 0.590799 -0.0656444 0.804144 
0.432509 -0.0733584 0.89864 0.494897 -0.0706996 0.866071 -0.432509 -0.0733584 0.89864 
-0.494897 -0.0706996 0.866071 -0.590799 -0.0656444 0.804144 0.383003 -0.219731 0.897233 
0.48529 -0.207981 0.849257 0.366378 -0.245016 0.897627 -0.383003 -0.219731 0.897233 
-0.366378 -0.245016 0.897627 -0.48529 -0.207981 0.849257 0.467642 -0.33403 0.818373 
0.245016 -0.366378 0.897627 0.353498 -0.353498 0.866071 0.219731 -0.383003 0.897233 
0.0733584 -0.432509 0.89864 -0.0733584 -0.432509 0.89864 -0.245016 -0.366378 0.897627 
-0.219731 -0.383003 0.897233 -0.353498 -0.353498 0.866071 -0.467642 -0.33403 0.818373 
0.33403 -0.467642 0.818373 0.207981 -0.48529 0.849257 0.0706996 -0.494897 0.866071 
-0.0706996 -0.494897 0.866071 -0.207981 -0.48529 0.849257 -0.33403 -0.467642 0.818373 
0.0656444 -0.590799 0.804144 -0.0656444 -0.590799 0.804144 0.179264 0.657302 0.731996 
0.0651673 0.598725 0.798299 0.0606269 0.666896 0.74268 -0.0651673 0.598725 0.798299 
-0.0606269 0.666896 0.74268 -0.179264 0.657302 0.731996 0.418283 0.537793 0.731996 
0.326245 0.504661 0.799301 0.312462 0.562431 0.765532 0.126438 0.587325 0.799414 
0.195552 0.569342 0.798504 0.193624 0.580872 0.790631 -0.126438 0.587325 0.799414 
-0.195552 0.569342 0.798504 -0.193624 0.580872 0.790631 -0.326245 0.504661 0.799301 
-0.312462 0.562431 0.765532 -0.418283 0.537793 0.731996 0.537793 0.418283 0.731996 
0.390193 0.456812 0.79942 0.456812 0.390193 0.79942 0.444444 0.444444 0.777778 
-0.390193 0.456812 0.79942 -0.456812 0.390193 0.79942 -0.444444 0.444444 0.777778 
-0.537793 0.418283 0.731996 0.504661 0.326245 0.799301 0.562431 0.312462 0.765532 
-0.504661 0.326245 0.799301 -0.562431 0.312462 0.765532 0.657302 0.179264 0.731996 
0.569342 0.195552 0.798504 0.587325 0.126438 0.799414 0.580872 0.193624 0.790631 
-0.569342 0.195552 0.798504 -0.587325 0.126438 0.799414 -0.580872 0.193624 0.790631 
-0.657302 0.179264 0.731996 0.598725 0.0651673 0.798299 0.666896 0.0606269 0.74268 
-0.598725 0.0651673 0.798299 -0.666896 0.0606269 0.74268 0.598725 -0.0651673 0.798299 
0.666896 -0.0606269 0.74268 0.587325 -0.126438 0.799414 -0.598725 -0.0651673 0.798299 
-0.587325 -0.126438 0.799414 -0.666896 -0.0606269 0.74268 0.657302 -0.179264 0.731996 
0.569342 -0.195552 0.798504 0.580872 -0.193624 0.790631 -0.569342 -0.195552 0.798504 
-0.580872 -0.193624 0.790631 -0.657302 -0.179264 0.731996 0.504661 -0.326245 0.799301 
0.562431 -0.312462 0.765532 0.456812 -0.390193 0.79942 -0.504661 -0.326245 0.799301 
-0.456812 -0.390193 0.79942 -0.562431 -0.312462 0.765532 0.537793 -0.418283 0.731996 
0.390193 -0.456812 0.79942 0.444444 -0.444444 0.777778 0.326245 -0.504661 0.799301 
0.195552 -0.569342 0.798504 -0.195552 -0.569342 0.798504 -0.390193 -0.456812 0.79942 
-0.326245 -0.504661 0.799301 -0.444444 -0.444444 0.777778 -0.537793 -0.418283 0.731996 
0.418283 -0.537793 0.731996 0.312462 -0.562431 0.765532 0.126438 -0.587325 0.799414 
0.193624 -0.580872 0.790631 0.0651673 -0.598725 0.798299 -0.126438 -0.587325 0.799414 
-0.0651673 -0.598725 0.798299 -0.193624 -0.580872 0.790631 -0.312462 -0.562431 0.765532 
-0.418283 -0.537793 0.731996 0.179264 -0.657302 0.731996 0.0606269 -0.666896 0.74268 
-0.0606269 -0.666896 0.74268 -0.179264 -0.657302 0.731996 0.177875 0.663942 0.726321 
0.165632 0.717737 0.676329 0.0593357 0.684215 0.726863 0.0558962 0.726651 0.684729 
-0.0593357 0.684215 0.726863 -0.0558962 0.726651 0.684729 -0.177875 0.663942 0.726321 
-0.165632 0.717737 0.676329 0.415086 0.547765 0.7264 0.391274 0.614859 0.684729 
0.213258 0.652756 0.726933 0.296693 0.619347 0.726899 0.290588 0.639295 0.711942 
-0.213258 0.652756 0.726933 -0.296693 0.619347 0.726899 -0.290588 0.639295 0.711942 
-0.415086 0.547765 0.7264 -0.391274 0.614859 0.684729 0.432756 0.533763 0.726511 
0.533763 0.432756 0.726511 0.509474 0.509474 0.69345 -0.432756 0.533763 0.726511 
-0.533763 0.432756 0.726511 -0.509474 0.509474 0.69345 0.547765 0.415086 0.7264 
0.614859 0.391274 0.684729 -0.547765 0.415086 0.7264 -0.614859 0.391274 0.684729 
0.619347 0.296693 0.726899 0.652756 0.213258 0.726933 0.639295 0.290588 0.711942 
-0.619347 0.296693 0.726899 -0.652756 0.213258 0.726933 -0.639295 0.290588 0.711942 
0.663942 0.177875 0.726321 0.717737 0.165632 0.676329 -0.663942 0.177875 0.726321 
-0.717737 0.165632 0.676329 0.684215 0.0593357 0.726863 0.726651 0.0558962 0.684729 
-0.684215 0.0593357 0.726863 -0.726651 0.0558962 0.684729 0.684215 -0.0593357 0.726863 
0.726651 -0.0558962 0.684729 -0.684215 -0.0593357 0.726863 -0.726651 -0.0558962 0.684729 
0.663942 -0.177875 0.726321 0.717737 -0.165632 0.676329 0.652756 -0.213258 0.726933 
-0.663942 -0.177875 0.726321 -0.652756 -0.213258 0.726933 -0.717737 -0.165632 0.676329 
0.619347 -0.296693 0.726899 0.639295 -0.290588 0.711942 -0.619347 -0.296693 0.726899 
-0.639295 -0.290588 0.711942 0.547765 -0.415086 0.7264 0.614859 -0.391274 0.684729 
0.533763 -0.432756 0.726511 -0.547765 -0.415086 0.7264 -0.533763 -0.432756 0.726511 
-0.614859 -0.391274 0.684729 0.432756 -0.533763 0.726511 0.509474 -0.509474 0.69345 
0.415086 -0.547765 0.7264 0.296693 -0.619347 0.726899 -0.296693 -0.619347 0.726899 
-0.432756 -0.533763 0.726511 -0.415086 -0.547765 0.7264 -0.509474 -0.509474 0.69345 
0.391274 -0.614859 0.684729 0.213258 -0.652756 0.726933 0.290588 -0.639295 0.711942 
0.177875 -0.663942 0.726321 0.0593357 -0.684215 0.726863 -0.0593357 -0.684215 0.726863 
-0.213258 -0.652756 0.726933 -0.177875 -0.663942 0.726321 -0.290588 -0.639295 0.711942 
-0.391274 -0.614859 0.684729 0.165632 -0.717737 0.676329 0.0558962 -0.726651 0.684729 
-0.0558962 -0.726651 0.684729 -0.165632 -0.717737 0.676329 0.16429 0.723167 0.670849 
0.0547938 0.739227 0.671224 0.0515668 0.773502 0.631693 -0.0547938 0.739227 0.671224 
-0.0515668 0.773502 0.631693 -0.16429 0.723167 0.670849 0.383601 0.634197 0.671301 
0.364869 0.677614 0.638521 0.203819 0.712512 0.671405 0.27394 0.688846 0.671154 
0.269557 0.700849 0.660416 -0.203819 0.712512 0.671405 -0.27394 0.688846 0.671154 
-0.269557 0.700849 0.660416 -0.383601 0.634197 0.671301 -0.364869 0.677614 0.638521 
0.4308 0.602948 0.671465 0.49333 0.552941 0.671477 0.479659 0.58625 0.652869 
-0.4308 0.602948 0.671465 -0.49333 0.552941 0.671477 -0.479659 0.58625 0.652869 