<VTKFile type="UnstructuredGrid" version="1.0" byte_order="LittleEndian" header_type="UInt64">
  <UnstructuredGrid>
    <Piece NumberOfPoints="60200" NumberOfCells="10000">
      <CellData Scalars="Scalars_">
        <DataArray type="Float32" Name="Scalars_" format="ascii">
     34.000000      34.000000      34.000000      34.000000      34.000000      36.000000      34.000000      34.000000      34.000000      34.000000      34.000000      32.000000      32.000000      32.000000      32.000000      32.000000      32.000000      32.000000      32.000000      30.000000      30.000000      30.000000      32.000000      32.000000      32.000000      32.000000      32.000000      34.000000      34.000000      32.000000      32.000000      34.000000      34.000000      34.000000      34.000000      34.000000      34.000000      34.000000      34.000000      34.000000      34.000000      34.000000      32.000000      32.000000      32.000000      34.000000      34.000000      34.000000      34.000000      34.000000      34.000000      34.000000      34.000000      34.000000      34.000000      34.000000      36.000000      36.000000      36.000000      36.000000      36.000000      34.000000      34.000000      34.000000      36.000000      36.000000      36.000000      36.000000      36.000000      36.000000      36.000000      36.000000      38.000000      38.000000      38.000000      38.000000      38.000000      36.000000      36.000000      36.000000      38.000000      38.000000      38.000000      38.000000      38.000000      40.000000      40.000000      38.000000      40.000000      40.000000      40.000000      40.000000      38.000000      38.000000      38.000000      38.000000      38.000000      38.000000      38.000000      38.000000      38.000000      40.000000      38.000000      38.000000      38.000000      38.000000      38.000000      38.000000      36.000000      38.000000      36.000000      36.000000      36.000000      34.000000      36.000000      36.000000      38.000000      36.000000      36.000000      36.000000      36.000000      36.000000      36.000000      36.000000      34.000000      34.000000      34.000000      34.000000      32.000000      34.000000      32.000000      32.000000      32.000000      30.000000      32.000000      32.000000      32.000000      32.000000      32.000000      34.000000      34.000000      34.000000      34.000000      34.000000      36.000000      34.000000      36.000000      36.000000      36.000000      38.000000      36.000000      36.000000      36.000000      36.000000      36.000000      34.000000      34.000000      34.000000      34.000000      34.000000      32.000000      32.000000      32.000000      34.000000      34.000000      34.000000      34.000000      34.000000      32.000000      34.000000      34.000000      32.000000      32.000000      32.000000      32.000000      30.000000      30.000000      30.000000      30.000000      30.000000      32.000000      32.000000      30.000000      32.000000      30.000000      30.000000      30.000000      30.000000      28.000000      30.000000      28.000000      28.000000      28.000000      28.000000      28.000000      26.000000      26.000000      26.000000      26.000000      26.000000      28.000000      26.000000      28.000000      28.000000      28.000000      30.000000      28.000000      28.000000      32.000000      32.000000      32.000000      30.000000      30.000000      30.000000      30.000000      30.000000      28.000000      28.000000      30.000000      30.000000      30.000000      30.000000      32.000000      30.000000      30.000000      30.000000      30.000000      30.000000      28.000000      28.000000      28.000000      28.000000      26.000000      26.000000      28.000000      28.000000      28.000000      28.000000      30.000000      30.000000      26.000000      24.000000      26.000000      26.000000      26.000000      26.000000      26.000000      26.000000      24.000000      26.000000      24.000000      24.000000      24.000000      24.000000      24.000000      24.000000      22.000000      24.000000      24.000000      22.000000      22.000000      22.000000      22.000000      22.000000      24.000000      24.000000      24.000000      24.000000      26.000000      26.000000      24.000000      24.000000      28.000000      30.000000      28.000000      28.000000      28.000000      28.000000      26.000000      26.000000      26.000000      26.000000      26.000000      26.000000      28.000000      28.000000      28.000000      28.000000      28.000000      28.000000      28.000000      28.000000      26.000000      26.000000      26.000000      26.000000      26.000000      26.000000      26.000000      26.000000      28.000000      28.000000      28.000000      28.000000      24.000000      24.000000      24.000000      24.000000      24.000000      24.000000      24.000000      24.000000      22.000000      22.000000      22.000000      22.000000      22.000000      22.000000      22.000000      22.000000      22.000000      22.000000      24.000000      22.000000      24.000000      24.000000      24.000000      26.000000      26.000000      24.000000      24.000000      26.000000      24.000000      24.000000      22.000000      24.000000      24.000000      24.000000      24.000000      24.000000      24.000000      26.000000      26.000000      26.000000      26.000000      26.000000      28.000000      26.000000      26.000000      26.000000      26.000000      26.000000      26.000000      28.000000      28.000000      28.000000      28.000000      28.000000      30.000000      28.000000      30.000000      30.000000      30.000000      30.000000      30.000000      30.000000      28.000000      30.000000      30.000000      28.000000      28.000000      30.000000      28.000000      28.000000      28.000000      28.000000      28.000000      26.000000      26.000000      26.000000      26.000000      26.000000      28.000000      28.000000      32.000000      32.000000      32.000000      32.000000      32.000000      32.000000      32.000000      32.000000      30.000000      30.000000      30.000000      30.000000      30.000000      30.000000      32.000000      30.000000      30.000000      32.000000      32.000000      30.000000      32.000000      32.000000      32.000000      32.000000      32.000000      34.000000      34.000000      34.000000      34.000000      32.000000      32.000000      34.000000      34.000000      34.000000      34.000000      34.000000      34.000000      34.000000      34.000000      34.000000      34.000000      34.000000      34.000000      34.000000      32.000000      34.000000      34.000000      32.000000      32.000000      32.000000      32.000000      34.000000      34.000000      34.000000      34.000000      34.000000      34.000000      32.000000      32.000000      32.000000      32.000000      32.000000      32.000000      32.000000      32.000000      32.000000      32.000000      32.000000      32.000000      32.000000      32.000000      32.000000      32.000000      32.000000      32.000000      32.000000      32.000000      32.000000      32.000000      32.000000      32.000000      32.000000      32.000000      32.000000      30.000000      30.000000      30.000000      30.000000      30.000000      30.000000      30.000000      30.000000      32.000000      32.000000      32.000000      32.000000      32.000000      32.000000      32.000000      32.000000      30.000000      30.000000      30.000000      30.000000      30.000000      30.000000      30.000000      30.000000      32.000000      32.000000      32.000000      32.000000      34.000000      34.000000      34.000000      32.000000      32.000000      32.000000      32.000000      32.000000      32.000000      32.000000      32.000000      32.000000      32.000000      32.000000      32.000000      32.000000      32.000000      30.000000      30.000000      30.000000      30.000000      30.000000      30.000000      30.000000      28.000000      28.000000      28.000000      28.000000      28.000000      28.000000      30.000000      30.000000      24.000000      24.000000      26.000000      26.000000      26.000000      26.000000      28.000000      28.000000      26.000000      28.000000      26.000000      26.000000      24.000000      26.000000      24.000000      24.000000      24.000000      24.000000      24.000000      24.000000      26.000000      26.000000      26.000000      26.000000      26.000000      26.000000      26.000000      26.000000      24.000000      24.000000      24.000000      24.000000      28.000000      28.000000      28.000000      28.000000      28.000000      28.000000      28.000000      28.000000      30.000000      30.000000      30.000000      30.000000      30.000000      30.000000      30.000000      30.000000      30.000000      30.000000      30.000000      30.000000      28.000000      28.000000      30.000000      28.000000      28.000000      30.000000      30.000000      28.000000      30.000000      30.000000      32.000000      32.000000      32.000000      30.000000      32.000000      32.000000      32.000000      32.000000      32.000000      32.000000      30.000000      32.000000      30.000000      30.000000      30.000000      30.000000      30.000000      28.000000      28.000000      28.000000      28.000000      28.000000      28.000000      30.000000      28.000000      28.000000      28.000000      28.000000      26.000000      26.000000      26.000000      26.000000      26.000000      26.000000      26.000000      26.000000      26.000000      24.000000      24.000000      24.000000      26.000000      26.000000      26.000000      26.000000      28.000000      28.000000      28.000000      28.000000      26.000000      26.000000      22.000000      22.000000      22.000000      22.000000      20.000000      20.000000      22.000000      22.000000      22.000000      22.000000      24.000000      24.000000      24.000000      22.000000      24.000000      24.000000      24.000000      24.000000      24.000000      26.000000      26.000000      26.000000      26.000000      24.000000      24.000000      24.000000      24.000000      24.000000      22.000000      24.000000      22.000000      22.000000      22.000000      20.000000      22.000000      22.000000      22.000000      24.000000      22.000000      22.000000      22.000000      22.000000      22.000000      20.000000      20.000000      20.000000      20.000000      18.000000      18.000000      18.000000      18.000000      20.000000      20.000000      20.000000      20.000000      20.000000      18.000000      20.000000      20.000000      18.000000      18.000000      18.000000      16.000000      16.000000      16.000000      18.000000      16.000000      16.000000      16.000000      16.000000      16.000000      16.000000      18.000000      18.000000      18.000000      18.000000      18.000000      20.000000      18.000000      18.000000      20.000000      20.000000      20.000000      22.000000      22.000000      24.000000      22.000000      22.000000      22.000000      22.000000      22.000000      22.000000      20.000000      20.000000      20.000000      20.000000      20.000000      20.000000      22.000000      22.000000      22.000000      24.000000      24.000000      22.000000      22.000000      24.000000      24.000000      22.000000      22.000000      22.000000      20.000000      22.000000      18.000000      20.000000      20.000000      20.000000      20.000000      20.000000      18.000000      18.000000      18.000000      18.000000      16.000000      16.000000      16.000000      18.000000      18.000000      18.000000      18.000000      18.000000      20.000000      20.000000      20.000000      20.000000      22.000000      20.000000      22.000000      22.000000      22.000000      22.000000      22.000000      20.000000      20.000000      20.000000      22.000000      22.000000      22.000000      22.000000      24.000000      24.000000      24.000000      24.000000      24.000000      24.000000      26.000000      24.000000      24.000000      24.000000      22.000000      24.000000      24.000000      24.000000      26.000000      24.000000      26.000000      26.000000      26.000000      26.000000      26.000000      28.000000      28.000000      28.000000      26.000000      26.000000      26.000000      26.000000      26.000000      24.000000      24.000000      26.000000      24.000000      24.000000      24.000000      24.000000      22.000000      22.000000      22.000000      22.000000      22.000000      24.000000      24.000000      24.000000      26.000000      26.000000      26.000000      26.000000      26.000000      26.000000      28.000000      26.000000      28.000000      28.000000      28.000000      28.000000      28.000000      28.000000      26.000000      28.000000      28.000000      28.000000      30.000000      30.000000      30.000000      32.000000      32.000000      30.000000      32.000000      32.000000      32.000000      32.000000      30.000000      30.000000      30.000000      30.000000      30.000000      30.000000      32.000000      32.000000      32.000000      32.000000      34.000000      32.000000      32.000000      34.000000      34.000000      34.000000      32.000000      32.000000      32.000000      32.000000      30.000000      30.000000      30.000000      30.000000      30.000000      30.000000      28.000000      30.000000      28.000000      28.000000      26.000000      28.000000      28.000000      28.000000      30.000000      28.000000      30.000000      30.000000      30.000000      30.000000      30.000000      32.000000      32.000000      32.000000      32.000000      32.000000      34.000000      32.000000      32.000000      32.000000      30.000000      32.000000      32.000000      32.000000      34.000000      32.000000      34.000000      34.000000      36.000000      34.000000      34.000000      36.000000      36.000000      36.000000      34.000000      34.000000      34.000000      34.000000      34.000000      36.000000      36.000000      36.000000      36.000000      36.000000      38.000000      36.000000      38.000000      38.000000      38.000000      38.000000      38.000000      36.000000      36.000000      36.000000      36.000000      36.000000      34.000000      36.000000      34.000000      34.000000      34.000000      34.000000      34.000000      32.000000      32.000000      32.000000      34.000000      34.000000      34.000000      34.000000      32.000000      30.000000      30.000000      30.000000      32.000000      32.000000      32.000000      32.000000      32.000000      34.000000      34.000000      34.000000      32.000000      32.000000      32.000000      32.000000      30.000000      30.000000      30.000000      30.000000      30.000000      28.000000      28.000000      28.000000      28.000000      28.000000      26.000000      28.000000      28.000000      28.000000      30.000000      30.000000      28.000000      28.000000      28.000000      28.000000      28.000000      26.000000      26.000000      26.000000      26.000000      26.000000      24.000000      26.000000      26.000000      26.000000      28.000000      28.000000      28.000000      30.000000      30.000000      28.000000      30.000000      30.000000      30.000000      30.000000      30.000000      32.000000      32.000000      32.000000      32.000000      30.000000      30.000000      32.000000      32.000000      32.000000      34.000000      32.000000      32.000000      32.000000      34.000000      34.000000      34.000000      34.000000      34.000000      34.000000      34.000000      34.000000      34.000000      34.000000      36.000000      36.000000      36.000000      36.000000      36.000000      34.000000      34.000000      34.000000      34.000000      34.000000      34.000000      34.000000      34.000000      36.000000      36.000000      36.000000      36.000000      36.000000      36.000000      36.000000      36.000000      36.000000      38.000000      36.000000      38.000000      38.000000      38.000000      38.000000      38.000000      36.000000      36.000000      36.000000      38.000000      38.000000      38.000000      38.000000      38.000000      40.000000      40.000000      40.000000      40.000000      40.000000      40.000000      40.000000      40.000000      40.000000      38.000000      38.000000      40.000000      38.000000      40.000000      40.000000      40.000000      40.000000      40.000000      40.000000      42.000000      40.000000      40.000000      42.000000      40.000000      40.000000      40.000000      40.000000      40.000000      40.000000      40.000000      40.000000      42.000000      42.000000      42.000000      42.000000      40.000000      42.000000      42.000000      40.000000      40.000000      40.000000      40.000000      40.000000      38.000000      38.000000      38.000000      38.000000      36.000000      36.000000      36.000000      38.000000      38.000000      38.000000      38.000000      38.000000      38.000000      38.000000      38.000000      40.000000      36.000000      36.000000      36.000000      36.000000      38.000000      36.000000      36.000000      36.000000      36.000000      36.000000      36.000000      36.000000      34.000000      36.000000      34.000000      34.000000      34.000000      34.000000      34.000000      34.000000      32.000000      32.000000      34.000000      34.000000      34.000000      34.000000      34.000000      34.000000      36.000000      34.000000      36.000000      36.000000      34.000000      34.000000      34.000000      34.000000      32.000000      32.000000      32.000000      32.000000      32.000000      32.000000      32.000000      34.000000      34.000000      34.000000      34.000000      34.000000      32.000000      32.000000      32.000000      32.000000      34.000000      34.000000      34.000000      32.000000      32.000000      34.000000      34.000000      32.000000      32.000000      32.000000      32.000000      32.000000      32.000000      32.000000      32.000000      32.000000      32.000000      32.000000      32.000000      32.000000      32.000000      34.000000      34.000000      34.000000      34.000000      32.000000      32.000000      34.000000      34.000000      34.000000      34.000000      34.000000      34.000000      36.000000      36.000000      36.000000      34.000000      34.000000      34.000000      34.000000      34.000000      34.000000      32.000000      32.000000      32.000000      32.000000      34.000000      32.000000      34.000000      34.000000      34.000000      34.000000      34.000000      34.000000      34.000000      34.000000      32.000000      32.000000      32.000000      32.000000      36.000000      36.000000      38.000000      36.000000      36.000000      36.000000      36.000000      36.000000      36.000000      34.000000      34.000000      34.000000      36.000000      36.000000      36.000000      36.000000      38.000000      38.000000      38.000000      38.000000      38.000000      38.000000      38.000000      38.000000      36.000000      38.000000      36.000000      36.000000      36.000000      38.000000      38.000000      38.000000      36.000000      36.000000      36.000000      36.000000      36.000000      34.000000      34.000000      34.000000      34.000000      34.000000      34.000000      34.000000      34.000000      36.000000      36.000000      36.000000      32.000000      34.000000      34.000000      34.000000      34.000000      34.000000      34.000000      34.000000      32.000000      34.000000      32.000000      32.000000      32.000000      32.000000      32.000000      32.000000      30.000000      30.000000      30.000000      30.000000      30.000000      32.000000      32.000000      32.000000      30.000000      30.000000      30.000000      30.000000      28.000000      30.000000      28.000000      28.000000      32.000000      32.000000      30.000000      32.000000      32.000000      32.000000      34.000000      32.000000      34.000000      34.000000      34.000000      34.000000      32.000000      32.000000      32.000000      32.000000      32.000000      32.000000      30.000000      32.000000      30.000000      30.000000      30.000000      30.000000      30.000000      30.000000      30.000000      28.000000      30.000000      30.000000      30.000000      30.000000      30.000000      30.000000      30.000000      30.000000      30.000000      28.000000      28.000000      28.000000      28.000000      28.000000      26.000000      28.000000      28.000000      28.000000      28.000000      28.000000      26.000000      26.000000      28.000000      26.000000      26.000000      26.000000      26.000000      26.000000      24.000000      24.000000      24.000000      24.000000      24.000000      26.000000      26.000000      24.000000      26.000000      26.000000      26.000000      26.000000      26.000000      28.000000      28.000000      28.000000      28.000000      28.000000      30.000000      28.000000      28.000000      28.000000      26.000000      28.000000      26.000000      26.000000      26.000000      26.000000      24.000000      26.000000      24.000000      24.000000      24.000000      24.000000      24.000000      22.000000      24.000000      24.000000      26.000000      24.000000      24.000000      24.000000      22.000000      24.000000      22.000000      22.000000      22.000000      22.000000      22.000000      20.000000      20.000000      20.000000      22.000000      22.000000      22.000000      22.000000      20.000000      20.000000      22.000000      20.000000      20.000000      20.000000      18.000000      18.000000      18.000000      18.000000      16.000000      18.000000      18.000000      20.000000      20.000000      20.000000      20.000000      22.000000      22.000000      20.000000      22.000000      22.000000      22.000000      22.000000      24.000000      24.000000      24.000000      24.000000      24.000000      22.000000      22.000000      24.000000      24.000000      26.000000      26.000000      24.000000      24.000000      26.000000      26.000000      26.000000      26.000000      26.000000      28.000000      28.000000      28.000000      26.000000      26.000000      26.000000      28.000000      28.000000      30.000000      28.000000      30.000000      30.000000      30.000000      30.000000      30.000000      32.000000      32.000000      30.000000      30.000000      30.000000      28.000000      28.000000      30.000000      30.000000      30.000000      30.000000      30.000000      32.000000      32.000000      32.000000      32.000000      32.000000      32.000000      32.000000      32.000000      30.000000      30.000000      30.000000      30.000000      30.000000      28.000000      28.000000      28.000000      28.000000      26.000000      28.000000      28.000000      26.000000      26.000000      26.000000      28.000000      28.000000      28.000000      28.000000      28.000000      28.000000      28.000000      28.000000      26.000000      26.000000      26.000000      26.000000      28.000000      26.000000      28.000000      28.000000      28.000000      28.000000      30.000000      30.000000      30.000000      30.000000      30.000000      32.000000      32.000000      32.000000      32.000000      32.000000      32.000000      32.000000      32.000000      30.000000      30.000000      30.000000      30.000000      30.000000      28.000000      28.000000      30.000000      30.000000      30.000000      32.000000      32.000000      30.000000      30.000000      30.000000      30.000000      30.000000      28.000000      28.000000      28.000000      28.000000      26.000000      28.000000      26.000000      26.000000      24.000000      24.000000      24.000000      26.000000      26.000000      24.000000      26.000000      26.000000      26.000000      28.000000      28.000000      26.000000      26.000000      26.000000      26.000000      26.000000      24.000000      24.000000      24.000000      24.000000      24.000000      24.000000      24.000000      24.000000      26.000000      26.000000      26.000000      26.000000      28.000000      28.000000      28.000000      28.000000      30.000000      30.000000      30.000000      30.000000      30.000000      30.000000      30.000000      30.000000      28.000000      28.000000      28.000000      28.000000      28.000000      28.000000      28.000000      28.000000      30.000000      30.000000      30.000000      30.000000      30.000000      30.000000      30.000000      30.000000      28.000000      28.000000      28.000000      28.000000      26.000000      26.000000      26.000000      26.000000      24.000000      24.000000      24.000000      24.000000      24.000000      24.000000      24.000000      24.000000      26.000000      26.000000      26.000000      26.000000      16.000000      16.000000      16.000000      16.000000      16.000000      16.000000      18.000000      16.000000      18.000000      18.000000      20.000000      18.000000      18.000000      18.000000      18.000000      18.000000      20.000000      20.000000      20.000000      20.000000      20.000000      20.000000      20.000000      20.000000      22.000000      22.000000      22.000000      22.000000      22.000000      22.000000      22.000000      22.000000      22.000000      22.000000      22.000000      22.000000      22.000000      22.000000      22.000000      22.000000      20.000000      20.000000      20.000000      20.000000      20.000000      20.000000      20.000000      20.000000      18.000000      20.000000      18.000000      18.000000      18.000000      18.000000      18.000000      18.000000      16.000000      16.000000      16.000000      16.000000      16.000000      16.000000      18.000000      16.000000      18.000000      20.000000      18.000000      18.000000      18.000000      16.000000      18.000000      18.000000      18.000000      18.000000      20.000000      20.000000      20.000000      20.000000      20.000000      20.000000      22.000000      22.000000      22.000000      22.000000      20.000000      20.000000      22.000000      22.000000      22.000000      22.000000      24.000000      24.000000      24.000000      22.000000      24.000000      24.000000      26.000000      26.000000      26.000000      26.000000      24.000000      26.000000      24.000000      24.000000      22.000000      24.000000      24.000000      24.000000      24.000000      24.000000      26.000000      24.000000      24.000000      24.000000      24.000000      22.000000      22.000000      22.000000      22.000000      20.000000      20.000000      20.000000      22.000000      20.000000      22.000000      22.000000      22.000000      22.000000      18.000000      18.000000      18.000000      18.000000      18.000000      18.000000      18.000000      18.000000      20.000000      20.000000      20.000000      20.000000      20.000000      20.000000      20.000000      20.000000      20.000000      20.000000      20.000000      22.000000      22.000000      22.000000      20.000000      20.000000      20.000000      20.000000      20.000000      18.000000      18.000000      20.000000      18.000000      18.000000      16.000000      16.000000      16.000000      18.000000      18.000000      18.000000      18.000000      16.000000      16.000000      16.000000      16.000000      16.000000      14.000000      16.000000      14.000000      14.000000      14.000000      14.000000      14.000000      14.000000      14.000000      14.000000      14.000000      14.000000      16.000000      16.000000      16.000000      16.000000      16.000000      16.000000      16.000000      16.000000      12.000000      12.000000      12.000000      12.000000      12.000000      12.000000      12.000000      12.000000      12.000000      12.000000      12.000000      12.000000      12.000000      12.000000      12.000000      12.000000      12.000000      12.000000      12.000000      14.000000      14.000000      16.000000      14.000000      14.000000      14.000000      14.000000      14.000000      14.000000      12.000000      12.000000      12.000000      12.000000      12.000000      12.000000      12.000000      12.000000      14.000000      14.000000      14.000000      14.000000      14.000000      14.000000      16.000000      14.000000      14.000000      12.000000      12.000000      14.000000      12.000000      12.000000      12.000000      12.000000      12.000000      14.000000      12.000000      12.000000      12.000000      12.000000      12.000000      12.000000      12.000000      12.000000      12.000000      12.000000      20.000000      18.000000      18.000000      20.000000      20.000000      20.000000      20.000000      18.000000      18.000000      18.000000      18.000000      16.000000      16.000000      18.000000      18.000000      16.000000      16.000000      14.000000      14.000000      16.000000      16.000000      16.000000      16.000000      14.000000      14.000000      14.000000      14.000000      12.000000      12.000000      14.000000      14.000000      12.000000      14.000000      14.000000      12.000000      14.000000      14.000000      12.000000      12.000000      14.000000      16.000000      14.000000      14.000000      16.000000      16.000000      14.000000      16.000000      16.000000      18.000000      18.000000      16.000000      18.000000      18.000000      16.000000      16.000000      18.000000      20.000000      18.000000      18.000000      20.000000      20.000000      18.00